 Gaussian 16, Revision A.03,
 Gaussian 16:  ES64L-G16RevA.03 25-Dec-2016

 ----------------------------------------
 #p TD=(Triplet,Nstates=10) B3LYP/def2SVP
 ----------------------------------------

 -------------------
 Benzene_dimer TDDFT
 -------------------
 Symbolic Z-matrix:
 Charge =  0 Multiplicity = 1

                         Standard orientation:
 ---------------------------------------------------------------------
 Center     Atomic      Atomic             Coordinates (Angstroms)
 Number     Number       Type             X           Y           Z
 ---------------------------------------------------------------------
      1          6           0        1.386037    1.132955    0.991987
      2          1           0        1.004021    2.018230    1.504408
      3          6           0        1.052246   -0.140219    1.458798
      4          1           0        0.404742   -0.249661    2.330508
      5          6           0        1.526882   -1.273484    0.793977
      6          1           0        1.255653   -2.268598    1.152948
      7          6           0        2.334364   -1.134366   -0.338113
      8          1           0        2.701129   -2.021150   -0.860145
      9          6           0        2.667200    0.140348   -0.806255
     10          1           0        3.295010    0.250109   -1.693588
     11          6           0        2.193559    1.274239   -0.140058
     12          1           0        2.449136    2.270500   -0.508246
     13          6           0       -2.334744    1.134380    0.337816
     14          1           0       -2.701815    2.021178    0.859610
     15          6           0       -2.667812   -0.140325    0.805819
     16          1           0       -3.296106   -0.250071    1.692812
     17          6           0       -2.193793   -1.274232    0.139917
     18          1           0       -2.449562   -2.270486    0.507991
     19          6           0       -1.385657   -1.132968   -0.991691
     20          1           0       -1.003326   -2.018243   -1.503877
     21          6           0       -1.051636    0.140195   -1.458363
     22          1           0       -0.403630    0.249617   -2.329699
     23          6           0       -1.526649    1.273475   -0.793839
     24          1           0       -1.255229    2.268578   -1.152696
 ---------------------------------------------------------------------

 SCF Done:  E(RB3LYP) =  -464.165668118     A.U. after   12 cycles

 Excitation energies and oscillator strengths:

 Excited State   1:      Triplet-A      3.7483 eV  330.78 nm  f=0.0000  <S**2>=2.000
      39 -> 45         0.30125
      40 -> 43        -0.35616
      41 -> 46        -0.33735
      42 -> 44         0.40401
 This state for optimization and/or second-order correction.
 Total Energy, E(TD-HF/TD-DFT) =  -464.027922399
 Copying the excited state density for this state as the 1-particle RhoCI density.

 Excited State   2:      Triplet-A      3.7657 eV  329.25 nm  f=0.0000  <S**2>=2.000
      39 -> 44         0.31073
      40 -> 46         0.32877
      41 -> 43         0.36831
      42 -> 45         0.38974

 Excited State   3:      Triplet-A      4.6800 eV  264.92 nm  f=0.0000  <S**2>=2.000
      39 -> 46        -0.26630
      40 -> 44        -0.30023
      41 -> 45         0.30474
      42 -> 43         0.49458

 Excited State   4:      Triplet-A      4.7020 eV  263.69 nm  f=0.0000  <S**2>=2.000
      39 -> 45         0.26001
      40 -> 43         0.37728
      41 -> 46         0.33628
      42 -> 44         0.42103

 Excited State   5:      Triplet-A      4.7184 eV  262.77 nm  f=0.0000  <S**2>=2.000
      39 -> 44         0.27665
      40 -> 46        -0.32043
      41 -> 43        -0.38423
      42 -> 45         0.41487

 Excited State   6:      Triplet-A      4.7274 eV  262.27 nm  f=0.0000  <S**2>=2.000
      39 -> 43        -0.30549
      40 -> 45         0.33791
      41 -> 44        -0.36795
      42 -> 46         0.39686

 Excited State   7:      Triplet-A      5.0862 eV  243.77 nm  f=0.0000  <S**2>=2.000
      39 -> 46        -0.16408
      40 -> 44         0.39461
      41 -> 45        -0.39315
      42 -> 43         0.38899

 Excited State   8:      Triplet-A      5.1314 eV  241.62 nm  f=0.0000  <S**2>=2.000
      39 -> 43        -0.27501
      40 -> 45        -0.33229
      41 -> 44         0.36682
      42 -> 46         0.41167

 Excited State   9:      Triplet-A      5.9157 eV  209.58 nm  f=0.0000  <S**2>=2.000
      40 -> 43        -0.46586
      41 -> 46         0.51445

 Excited State  10:      Triplet-A      5.9492 eV  208.40 nm  f=0.0000  <S**2>=2.000
      40 -> 45         0.51332
      41 -> 44         0.47342

 The electronic state is 1-A.
 Alpha  occ. eigenvalues --  -10.18784 -10.18782 -10.18725 -10.18724 -10.18711
 Alpha  occ. eigenvalues --  -10.18710 -10.18670 -10.18667 -10.18644 -10.18642
 Alpha  occ. eigenvalues --  -10.18526 -10.18521  -0.84329  -0.83982  -0.73496
 Alpha  occ. eigenvalues --   -0.73354  -0.73311  -0.73200  -0.59342  -0.59310
 Alpha  occ. eigenvalues --   -0.59302  -0.59246  -0.51860  -0.51726  -0.45292
 Alpha  occ. eigenvalues --   -0.45282  -0.44463  -0.44437  -0.41916  -0.41831
 Alpha  occ. eigenvalues --   -0.41807  -0.41739  -0.37661  -0.35201  -0.34245
 Alpha  occ. eigenvalues --   -0.34238  -0.34234  -0.34224  -0.26207  -0.25190
 Alpha  occ. eigenvalues --   -0.24995  -0.24166
 Alpha virt. eigenvalues --   -0.00879  -0.00548  -0.00382  -0.00101   0.05028
 Alpha virt. eigenvalues --    0.07066   0.08680   0.09295   0.11033   0.11460
 Alpha virt. eigenvalues --    0.13097   0.13361   0.14413   0.14741   0.15070

 Mulliken charges:
               1
     1  C    0.037054
     2  H   -0.021043
     3  C    0.026989
     4  H   -0.018318
     5  C    0.030798
     6  H   -0.021299
     7  C    0.007659
     8  H   -0.020586
     9  C    0.013238
    10  H   -0.019948
    11  C    0.006356
    12  H   -0.020889
    13  C    0.007659
    14  H   -0.020589
    15  C    0.013244
    16  H   -0.019951
    17  C    0.006350
    18  H   -0.020893
    19  C    0.037059
    20  H   -0.021051
    21  C    0.027001
    22  H   -0.018321
    23  C    0.030785
    24  H   -0.021306
 Sum of Mulliken charges =  -0.00000

 Dipole moment (field-independent basis, Debye):
    X=              0.0003    Y=              0.0000    Z=              0.0002  Tot=              0.0003
 Quadrupole moment (field-independent basis, Debye-Ang):
   XX=            -74.9726   YY=            -64.8571   ZZ=            -69.3552
   XY=              0.0023   XZ=             -6.3680   YZ=              0.0004

 1\1\GINC-CNODE15\SP\RB3LYP TD-FC\def2SVP\C12H12\WANGRU\16-Jun-2022\0\\
 #p TD=(Triplet,Nstates=10) B3LYP/def2SVP\\Benzene_dimer TDDFT\\0,1\C,0
 ,0.2065590093,1.1240187533,-1.6978326934\H,0,0.8568370099,1.997572019,
 -1.6186682519\C,0,0.7532136995,-0.1593708336,-1.6316373187\H,0,1.82816
 06699,-0.2884499815,-1.4939996025\C,0,-0.0798911558,-1.2775659056,-1.7
 16091167\H,0,0.3473070989,-2.2806256644,-1.6524559822\C,0,-1.459601638
 8,-1.1131600178,-1.8656891704\H,0,-2.1108113322,-1.9881492082,-1.92684
 45483\C,0,-2.00691957,0.1717869057,-1.9304047963\H,0,-3.0858273516,0.3

 Normal termination of Gaussian 16 at Thu Jun 16 14:46:54 2022.
