                         Program Version 5.0.0 -  RELEASE  -
|  1> !B3LYP/G def2-SVP TightSCF NoRI pal8
|  2>
|  3> %TDDFT
|  4>  nroots 10
|  5>  DOSOC TRUE
|  6>  TDA false
|  7> end
|  8>
|  9> *xyzfile 0 1 opt.xyz
| 10>
| 11>
| 12>
| 13>
| 14>                          ****END OF INPUT****

CARTESIAN COORDINATES (ANGSTROEM)
---------------------------------
  C      0.206559    1.124019   -1.697833
  H      0.856837    1.997572   -1.618668
  C      0.753214   -0.159371   -1.631637
  H      1.828161   -0.288450   -1.494000
  C     -0.079891   -1.277566   -1.716091
  H      0.347307   -2.280626   -1.652456
  C     -1.459602   -1.113160   -1.865689
  H     -2.110811   -1.988149   -1.926845
  C     -2.006920    0.171787   -1.930405
  H     -3.085827    0.301336   -2.043220
  C     -1.173091    1.290589   -1.847494
  H     -1.600632    2.294859   -1.892973
  C      1.459529    1.113177    1.866168
  H      2.110681    1.988182    1.927707
  C      2.006839   -0.171760    1.931154
  H      3.085688   -0.301291    2.044559
  C      1.173082   -1.290581    1.847770
  H      1.600618   -2.294843    1.893472
  C     -0.206488   -1.124035    1.697358
  H     -0.856716   -1.997590    1.617805
  C     -0.753134    0.159343    1.630895
  H     -1.828002    0.288398    1.492636
  C      0.079897    1.277556    1.715823
  H     -0.347296    2.280604    1.651965

 Total Charge           Charge          ....    0
 Multiplicity           Mult            ....    1
 Number of Electrons    NEL             ....   84
 Basis Dimension        Dim             ....  228

ORBITAL ENERGIES
----------------

  NO   OCC          E(Eh)            E(eV)
   0   2.0000     -10.187850      -277.2255
   1   2.0000     -10.187830      -277.2249
   2   2.0000     -10.187261      -277.2095
   3   2.0000     -10.187244      -277.2090
   4   2.0000     -10.187119      -277.2056
   5   2.0000     -10.187105      -277.2052
   6   2.0000     -10.186696      -277.1941
   7   2.0000     -10.186668      -277.1933
   8   2.0000     -10.186437      -277.1871
   9   2.0000     -10.186425      -277.1867
  10   2.0000     -10.185262      -277.1551
  11   2.0000     -10.185216      -277.1538
  12   2.0000      -0.843291       -22.9471
  13   2.0000      -0.839822       -22.8527
  14   2.0000      -0.734965       -19.9994
  15   2.0000      -0.733542       -19.9607
  16   2.0000      -0.733110       -19.9489
  17   2.0000      -0.732002       -19.9188
  18   2.0000      -0.593417       -16.1477
  19   2.0000      -0.593103       -16.1392
  20   2.0000      -0.593025       -16.1370
  21   2.0000      -0.592458       -16.1216
  22   2.0000      -0.518604       -14.1119
  23   2.0000      -0.517261       -14.0754
  24   2.0000      -0.452917       -12.3245
  25   2.0000      -0.452825       -12.3220
  26   2.0000      -0.444634       -12.0991
  27   2.0000      -0.444371       -12.0920
  28   2.0000      -0.419163       -11.4060
  29   2.0000      -0.418310       -11.3828
  30   2.0000      -0.418071       -11.3763
  31   2.0000      -0.417390       -11.3578
  32   2.0000      -0.376618       -10.2483
  33   2.0000      -0.352021        -9.5790
  34   2.0000      -0.342449        -9.3185
  35   2.0000      -0.342386        -9.3168
  36   2.0000      -0.342338        -9.3155
  37   2.0000      -0.342240        -9.3128
  38   2.0000      -0.262075        -7.1314
  39   2.0000      -0.251898        -6.8545
  40   2.0000      -0.249949        -6.8015
  41   2.0000      -0.241667        -6.5761
  42   0.0000      -0.008781        -0.2389
  43   0.0000      -0.005478        -0.1491
  44   0.0000      -0.003829        -0.1042
  45   0.0000      -0.001004        -0.0273
  46   0.0000       0.050263         1.3677

MULLIKEN ATOMIC CHARGES
-----------------------
   0 C :    0.036813
   1 H :   -0.021036
   2 C :    0.027377
   3 H :   -0.018380
   4 C :    0.030668
   5 H :   -0.021280
   6 C :    0.007681
   7 H :   -0.020601
   8 C :    0.013187
   9 H :   -0.019949
  10 C :    0.006414
  11 H :   -0.020883
  12 C :    0.007681
  13 H :   -0.020605
  14 C :    0.013197
  15 H :   -0.019952
  16 C :    0.006406
  17 H :   -0.020887
  18 C :    0.036816
  19 H :   -0.021044
  20 C :    0.027395
  21 H :   -0.018384
  22 C :    0.030652
  23 H :   -0.021287
Sum of atomic charges:   -0.0000000

LOEWDIN ATOMIC CHARGES
----------------------
   0 C :   -0.019885
   1 H :    0.024511
   2 C :   -0.016997
   3 H :    0.025777
   4 C :   -0.021406
   5 H :    0.024324
   6 C :   -0.030176
   7 H :    0.024267
   8 C :   -0.029750
   9 H :    0.024490
  10 C :   -0.029353
  11 H :    0.024215
  12 C :   -0.030181
  13 H :    0.024266
  14 C :   -0.029751
  15 H :    0.024490
  16 C :   -0.029360
  17 H :    0.024214
  18 C :   -0.019889
  19 H :    0.024507
  20 C :   -0.016991
  21 H :    0.025772
  22 C :   -0.021413
  23 H :    0.024321

  Mayer bond orders larger than 0.100000
B(  0-C ,  1-H ) :   0.9820 B(  0-C ,  2-C ) :   1.3981 B(  0-C , 10-C ) :   1.3882
B(  2-C ,  3-H ) :   0.9819 B(  2-C ,  4-C ) :   1.3931 B(  4-C ,  5-H ) :   0.9832
B(  4-C ,  6-C ) :   1.3898 B(  6-C ,  7-H ) :   0.9845 B(  6-C ,  8-C ) :   1.3883
B(  8-C ,  9-H ) :   0.9843 B(  8-C , 10-C ) :   1.3900 B( 10-C , 11-H ) :   0.9847
B( 12-C , 13-H ) :   0.9845 B( 12-C , 14-C ) :   1.3883 B( 12-C , 22-C ) :   1.3898
B( 14-C , 15-H ) :   0.9843 B( 14-C , 16-C ) :   1.3900 B( 16-C , 17-H ) :   0.9847
B( 16-C , 18-C ) :   1.3882 B( 18-C , 19-H ) :   0.9820 B( 18-C , 20-C ) :   1.3981
B( 20-C , 21-H ) :   0.9819 B( 20-C , 22-C ) :   1.3931 B( 22-C , 23-H ) :   0.9832

---------------------------------------------------------------------------------------------------------------------
                    SOC CORRECTED ABSORPTION SPECTRUM VIA TRANSITION ELECTRIC DIPOLE MOMENTS*
---------------------------------------------------------------------------------------------------------------------
   State    Energy  Wavelength   fosc         T2              TX                    TY                    TZ
            (cm-1)    (nm)                  (au**2)          (au)                  (au)                  (au)
---------------------------------------------------------------------------------------------------------------------
   0   1   30224.4    330.9   0.000000000   0.00000 (  0.00000, -0.00000) ( -0.00000,  0.00000) (  0.00000, -0.00000)
   0   2   30224.4    330.9   0.000000000   0.00000 ( -0.00000, -0.00000) (  0.00000,  0.00000) ( -0.00000, -0.00000)
   0   3   30224.4    330.9   0.000000000   0.00000 (  0.00000, -0.00000) (  0.00000, -0.00000) (  0.00000, -0.00000)
   0   4   30368.4    329.3   0.000000000   0.00000 (  0.00000,  0.00000) ( -0.00000, -0.00000) ( -0.00000, -0.00000)
   0   5   30368.4    329.3   0.000000000   0.00000 ( -0.00000,  0.00000) (  0.00000, -0.00000) ( -0.00000,  0.00000)
   0   6   30368.4    329.3   0.000000000   0.00000 ( -0.00000,  0.00000) (  0.00000, -0.00000) ( -0.00000,  0.00000)
   0   7   37745.5    264.9   0.000000000   0.00000 ( -0.00000,  0.00000) (  0.00000, -0.00000) ( -0.00000,  0.00000)
   0   8   37745.5    264.9   0.000000000   0.00000 (  0.00000,  0.00000) (  0.00000,  0.00000) (  0.00000,  0.00000)
   0   9   37745.5    264.9   0.000000000   0.00000 ( -0.00000, -0.00000) (  0.00000,  0.00000) ( -0.00000, -0.00000)
   0  10   37923.8    263.7   0.000000000   0.00000 ( -0.00000,  0.00000) (  0.00000, -0.00000) (  0.00000, -0.00000)
   0  11   37923.8    263.7   0.000000000   0.00000 ( -0.00000, -0.00000) ( -0.00000, -0.00000) ( -0.00000, -0.00000)
   0  12   37923.8    263.7   0.000000000   0.00000 ( -0.00000,  0.00000) ( -0.00000,  0.00000) ( -0.00000,  0.00000)
   0  13   38057.7    262.8   0.000000000   0.00000 (  0.00000, -0.00000) ( -0.00000,  0.00000) (  0.00000, -0.00000)
   0  14   38057.7    262.8   0.000000000   0.00000 ( -0.00000,  0.00000) (  0.00000, -0.00000) (  0.00000, -0.00000)
   0  15   38057.7    262.8   0.000000000   0.00000 ( -0.00000, -0.00000) (  0.00000,  0.00000) ( -0.00000, -0.00000)
   0  16   38127.4    262.3   0.000000000   0.00000 (  0.00000,  0.00000) ( -0.00000, -0.00000) (  0.00001,  0.00000)
   0  17   38127.4    262.3   0.000000000   0.00000 (  0.00000,  0.00000) ( -0.00000, -0.00000) (  0.00001,  0.00000)
   0  18   38127.4    262.3   0.000000000   0.00000 (  0.00000,  0.00000) (  0.00000,  0.00000) (  0.00000,  0.00000)
   0  19   41020.5    243.8   0.000000000   0.00000 ( -0.00000, -0.00000) (  0.00000,  0.00000) ( -0.00000, -0.00000)
   0  20   41020.5    243.8   0.000000000   0.00000 (  0.00000,  0.00000) ( -0.00000, -0.00000) ( -0.00000, -0.00000)
   0  21   41020.5    243.8   0.000000000   0.00000 (  0.00000,  0.00000) (  0.00000,  0.00000) (  0.00000,  0.00000)
   0  22   41391.4    241.6   0.000000000   0.00000 ( -0.00000, -0.00000) (  0.00000,  0.00000) ( -0.00001, -0.00000)
   0  23   41391.4    241.6   0.000000000   0.00000 ( -0.00001,  0.00000) (  0.00000, -0.00000) ( -0.00000,  0.00000)
   0  24   41391.4    241.6   0.000000000   0.00000 ( -0.00000, -0.00000) ( -0.00000, -0.00000) ( -0.00000, -0.00000)
   0  25   43196.5    231.5   0.000000000   0.00000 (  0.00000, -0.00001) (  0.00000, -0.00002) ( -0.00000,  0.00001)
   0  26   43873.2    227.9   0.000348062   0.00261 (  0.00862, -0.01929) (  0.00987, -0.02209) (  0.01621, -0.03629)
   0  27   47404.0    211.0   0.000001842   0.00001 (  0.00205,  0.00113) ( -0.00043, -0.00024) (  0.00233,  0.00129)
   0  28   47545.8    210.3   0.048556889   0.33621 (  0.32939,  0.08632) ( -0.07098, -0.01860) (  0.44841,  0.11751)
   0  29   47714.7    209.6   0.000000000   0.00000 (  0.00000, -0.00000) ( -0.00000,  0.00001) (  0.00000, -0.00001)
   0  30   47714.7    209.6   0.000000003   0.00000 ( -0.00008, -0.00002) (  0.00002,  0.00001) ( -0.00011, -0.00003)
   0  31   47714.7    209.6   0.000000001   0.00000 ( -0.00002, -0.00002) ( -0.00002, -0.00002) ( -0.00003, -0.00004)
   0  32   47962.5    208.5   0.000000577   0.00000 ( -0.00158, -0.00100) (  0.00036,  0.00023) ( -0.00044, -0.00028)
   0  33   47982.6    208.4   0.000000006   0.00000 ( -0.00019, -0.00006) (  0.00003,  0.00001) (  0.00002,  0.00001)
   0  34   47982.6    208.4   0.000000000   0.00000 (  0.00001,  0.00001) ( -0.00001, -0.00002) ( -0.00001, -0.00002)
   0  35   47982.6    208.4   0.000000000   0.00000 (  0.00003, -0.00002) (  0.00001, -0.00000) (  0.00001, -0.00001)
   0  36   48175.5    207.6   0.005677612   0.03880 ( -0.13656, -0.04242) (  0.01835,  0.00570) (  0.12805,  0.03978)
   0  37   48260.4    207.2   0.000004598   0.00003 (  0.00179, -0.00245) (  0.00226, -0.00309) (  0.00161, -0.00221)
   0  38   48295.4    207.1   0.001393620   0.00950 ( -0.02453,  0.04080) ( -0.03417,  0.05685) ( -0.02743,  0.04563)
   0  39   48584.2    205.8   0.009840042   0.06668 (  0.00628, -0.10196) (  0.00966, -0.15690) (  0.01091, -0.17723)
   0  40   48883.9    204.6   0.000000251   0.00000 ( -0.00005,  0.00058) ( -0.00007,  0.00080) ( -0.00008,  0.00084)

FINAL SINGLE POINT ENERGY      -464.027972777465

DIPOLE MOMENT
-------------
                                X             Y             Z
Electronic contribution:     -0.00000      -0.00000      -0.00011
Nuclear contribution   :      0.00001       0.00000      -0.00003
                        -----------------------------------------
Total Dipole Moment    :      0.00001       0.00000      -0.00014
                        -----------------------------------------
Magnitude (a.u.)       :      0.00014
Magnitude (Debye)      :      0.00036

Rotational constants in cm-1:     0.053934     0.022933     0.021647
Rotational constants in MHz :  1616.887126   687.513065   648.953335

                             ****ORCA TERMINATED NORMALLY****
TOTAL RUN TIME: 0 days 0 hours 10 minutes 44 seconds 415 msec
