                         Program Version 5.0.0 -  RELEASE  -
|  1> ! RKS B3LYP/G cc-pvdz D3 NoUseSym Opt pal8
|  2>
|  3> *xyzfile 0 1 benzene_dimer.xyz
|  4>
|  5>
|  6>
|  7>
|  8>                          ****END OF INPUT****
 Total Charge           Charge          ....    0
 Multiplicity           Mult            ....    1
 Number of Electrons    NEL             ....   84
Dispersion correction           -0.047184452
FINAL SINGLE POINT ENERGY      -464.569107001350
Dispersion correction            ... done
Dispersion correction           -0.047071834
FINAL SINGLE POINT ENERGY      -464.570167917452
Dispersion correction            ... done
Dispersion correction           -0.047125548
FINAL SINGLE POINT ENERGY      -464.570189375361
Dispersion correction            ... done
FINAL SINGLE POINT ENERGY      -464.570231860338
FINAL SINGLE POINT ENERGY      -464.570264841064
FINAL SINGLE POINT ENERGY      -464.570291523373
Dispersion correction            ... done
Dispersion correction           -0.047973602
FINAL SINGLE POINT ENERGY      -464.570305369301
Dispersion correction            ... done
Dispersion correction           -0.048065842
FINAL SINGLE POINT ENERGY      -464.570307553904
Dispersion correction            ... done
                    ***********************HURRAY********************

CARTESIAN COORDINATES (ANGSTROEM)
---------------------------------
  C      0.206559    1.124019   -1.697833
  H      0.856837    1.997572   -1.618668
  C      0.753214   -0.159371   -1.631637
  H      1.828161   -0.288450   -1.494000
  C     -0.079891   -1.277566   -1.716091
  H      0.347307   -2.280626   -1.652456
  C     -1.459602   -1.113160   -1.865689
  H     -2.110811   -1.988149   -1.926845
  C     -2.006920    0.171787   -1.930405
  H     -3.085827    0.301336   -2.043220
  C     -1.173091    1.290589   -1.847494
  H     -1.600632    2.294859   -1.892973
  C      1.459529    1.113177    1.866168
  H      2.110681    1.988182    1.927707
  C      2.006839   -0.171760    1.931154
  H      3.085688   -0.301291    2.044559
  C      1.173082   -1.290581    1.847770
  H      1.600618   -2.294843    1.893472
  C     -0.206488   -1.124035    1.697358
  H     -0.856716   -1.997590    1.617805
  C     -0.753134    0.159343    1.630895
  H     -1.828002    0.288398    1.492636
  C      0.079897    1.277556    1.715823
  H     -0.347296    2.280604    1.651965

 Multiplicity           Mult            ....    1
 Number of Electrons    NEL             ....   84
 Basis Dimension        Dim             ....  228

ORBITAL ENERGIES
----------------

  NO   OCC          E(Eh)            E(eV)
   0   2.0000     -10.187637      -277.2197
   1   2.0000     -10.187629      -277.2195
   2   2.0000     -10.187040      -277.2035
   3   2.0000     -10.187031      -277.2032
   4   2.0000     -10.186838      -277.1980
   5   2.0000     -10.186829      -277.1977
   6   2.0000     -10.186322      -277.1839
   7   2.0000     -10.186311      -277.1836
   8   2.0000     -10.186083      -277.1774
   9   2.0000     -10.186072      -277.1771
  10   2.0000     -10.184935      -277.1462
  11   2.0000     -10.184921      -277.1458
  12   2.0000      -0.849948       -23.1283
  13   2.0000      -0.846651       -23.0385
  14   2.0000      -0.742401       -20.2018
  15   2.0000      -0.741011       -20.1639
  16   2.0000      -0.740575       -20.1521
  17   2.0000      -0.739539       -20.1239
  18   2.0000      -0.597684       -16.2638
  19   2.0000      -0.597399       -16.2561
  20   2.0000      -0.597292       -16.2531
  21   2.0000      -0.596724       -16.2377
  22   2.0000      -0.516997       -14.0682
  23   2.0000      -0.515683       -14.0325
  24   2.0000      -0.455970       -12.4076
  25   2.0000      -0.455882       -12.4052
  26   2.0000      -0.440773       -11.9940
  27   2.0000      -0.440506       -11.9868
  28   2.0000      -0.416965       -11.3462
  29   2.0000      -0.416033       -11.3208
  30   2.0000      -0.415843       -11.3157
  31   2.0000      -0.415132       -11.2963
  32   2.0000      -0.373929       -10.1751
  33   2.0000      -0.349286        -9.5045
  34   2.0000      -0.339370        -9.2347
  35   2.0000      -0.339302        -9.2329
  36   2.0000      -0.339242        -9.2312
  37   2.0000      -0.339160        -9.2290
  38   2.0000      -0.259260        -7.0548
  39   2.0000      -0.248946        -6.7742
  40   2.0000      -0.247004        -6.7213
  41   2.0000      -0.238726        -6.4961
  42   0.0000      -0.006142        -0.1671
  43   0.0000      -0.002883        -0.0785
  44   0.0000      -0.001106        -0.0301
  45   0.0000       0.001607         0.0437
  46   0.0000       0.049416         1.3447

MULLIKEN ATOMIC CHARGES
-----------------------
   0 C :    0.037939
   1 H :   -0.034509
   2 C :    0.049172
   3 H :   -0.031605
   4 C :    0.034183
   5 H :   -0.034921
   6 C :    0.027871
   7 H :   -0.034215
   8 C :    0.026663
   9 H :   -0.033794
  10 C :    0.027887
  11 H :   -0.034656
  12 C :    0.027868
  13 H :   -0.034218
  14 C :    0.026669
  15 H :   -0.033795
  16 C :    0.027885
  17 H :   -0.034659
  18 C :    0.037929
  19 H :   -0.034517
  20 C :    0.049188
  21 H :   -0.031610
  22 C :    0.034173
  23 H :   -0.034927
Sum of atomic charges:   -0.0000000

LOEWDIN ATOMIC CHARGES
----------------------
   0 C :   -0.020082
   1 H :    0.024510
   2 C :   -0.016336
   3 H :    0.025745
   4 C :   -0.021617
   5 H :    0.024300
   6 C :   -0.030109
   7 H :    0.024271
   8 C :   -0.030131
   9 H :    0.024506
  10 C :   -0.029221
  11 H :    0.024182
  12 C :   -0.030115
  13 H :    0.024271
  14 C :   -0.030134
  15 H :    0.024505
  16 C :   -0.029228
  17 H :    0.024181
  18 C :   -0.020086
  19 H :    0.024506
  20 C :   -0.016329
  21 H :    0.025740
  22 C :   -0.021625
  23 H :    0.024297

  Mayer bond orders larger than 0.100000
B(  0-C ,  1-H ) :   0.9409 B(  0-C ,  2-C ) :   1.4651 B(  0-C , 10-C ) :   1.4573
B(  2-C ,  3-H ) :   0.9393 B(  2-C ,  4-C ) :   1.4618 B(  4-C ,  5-H ) :   0.9413
B(  4-C ,  6-C ) :   1.4594 B(  6-C ,  7-H ) :   0.9416 B(  6-C ,  8-C ) :   1.4600
B(  8-C ,  9-H ) :   0.9416 B(  8-C , 10-C ) :   1.4617 B( 10-C , 11-H ) :   0.9416
B( 12-C , 13-H ) :   0.9416 B( 12-C , 14-C ) :   1.4601 B( 12-C , 22-C ) :   1.4594
B( 14-C , 15-H ) :   0.9416 B( 14-C , 16-C ) :   1.4617 B( 16-C , 17-H ) :   0.9416
B( 16-C , 18-C ) :   1.4573 B( 18-C , 19-H ) :   0.9409 B( 18-C , 20-C ) :   1.4651
B( 20-C , 21-H ) :   0.9392 B( 20-C , 22-C ) :   1.4618 B( 22-C , 23-H ) :   0.9413

Dispersion correction           -0.048084048
FINAL SINGLE POINT ENERGY      -464.570308186164

DIPOLE MOMENT
-------------
                                X             Y             Z
Electronic contribution:     -0.00001      -0.00000      -0.00013
Nuclear contribution   :      0.00001       0.00000      -0.00003
                        -----------------------------------------
Total Dipole Moment    :     -0.00000       0.00000      -0.00016
                        -----------------------------------------
Magnitude (a.u.)       :      0.00016
Magnitude (Debye)      :      0.00040

Rotational constants in cm-1:     0.053934     0.022933     0.021647
Rotational constants in MHz :  1616.887126   687.513065   648.953335

                             ****ORCA TERMINATED NORMALLY****
TOTAL RUN TIME: 0 days 0 hours 3 minutes 28 seconds 458 msec
