 Gaussian 16, Revision A.03,
 Gaussian 16:  ES64L-G16RevA.03 25-Dec-2016

 ---------------------------------
 #p TDA=(Nstates=10) B3LYP/def2SVP
 ---------------------------------

 -----------------
 Benzene_dimer TDA
 -----------------
 Symbolic Z-matrix:
 Charge =  0 Multiplicity = 1

                         Standard orientation:
 ---------------------------------------------------------------------
 Center     Atomic      Atomic             Coordinates (Angstroms)
 Number     Number       Type             X           Y           Z
 ---------------------------------------------------------------------
      1          6           0        1.386037    1.132955    0.991987
      2          1           0        1.004021    2.018230    1.504408
      3          6           0        1.052246   -0.140219    1.458798
      4          1           0        0.404742   -0.249661    2.330508
      5          6           0        1.526882   -1.273484    0.793977
      6          1           0        1.255653   -2.268598    1.152948
      7          6           0        2.334364   -1.134366   -0.338113
      8          1           0        2.701129   -2.021150   -0.860145
      9          6           0        2.667200    0.140348   -0.806255
     10          1           0        3.295010    0.250109   -1.693588
     11          6           0        2.193559    1.274239   -0.140058
     12          1           0        2.449136    2.270500   -0.508246
     13          6           0       -2.334744    1.134380    0.337816
     14          1           0       -2.701815    2.021178    0.859610
     15          6           0       -2.667812   -0.140325    0.805819
     16          1           0       -3.296106   -0.250071    1.692812
     17          6           0       -2.193793   -1.274232    0.139917
     18          1           0       -2.449562   -2.270486    0.507991
     19          6           0       -1.385657   -1.132968   -0.991691
     20          1           0       -1.003326   -2.018243   -1.503877
     21          6           0       -1.051636    0.140195   -1.458363
     22          1           0       -0.403630    0.249617   -2.329699
     23          6           0       -1.526649    1.273475   -0.793839
     24          1           0       -1.255229    2.268578   -1.152696
 ---------------------------------------------------------------------

 SCF Done:  E(RB3LYP) =  -464.165668118     A.U. after   12 cycles

 Excitation energies and oscillator strengths:

 Excited State   1:      Singlet-A      5.3786 eV  230.51 nm  f=0.0000  <S**2>=0.000
      39 -> 46        -0.13081
      40 -> 44         0.30674
      41 -> 45        -0.30857
      42 -> 43         0.53085
 This state for optimization and/or second-order correction.
 Total Energy, E(CIS/TDA) =  -463.968007307
 Copying the excited state density for this state as the 1-particle RhoCI density.

 Excited State   2:      Singlet-A      5.4636 eV  226.93 nm  f=0.0004  <S**2>=0.000
      39 -> 43        -0.23798
      40 -> 45        -0.30155
      41 -> 44         0.36856
      42 -> 46         0.45074

 Excited State   3:      Singlet-A      5.9256 eV  209.24 nm  f=0.0000  <S**2>=0.000
      39 -> 44        -0.19592
      40 -> 46        -0.22951
      41 -> 43         0.46112
      42 -> 45         0.42787

 Excited State   4:      Singlet-A      5.9608 eV  208.00 nm  f=0.0491  <S**2>=0.000
      39 -> 43         0.13016
      39 -> 45        -0.28598
      42 -> 44         0.58707
      42 -> 46         0.15890

 Excited State   5:      Singlet-A      5.9621 eV  207.95 nm  f=0.0007  <S**2>=0.000
      39 -> 44        -0.26685
      40 -> 46         0.33193
      41 -> 43        -0.35346
      42 -> 45         0.42824

 Excited State   6:      Singlet-A      5.9818 eV  207.27 nm  f=0.0082  <S**2>=0.000
      40 -> 43         0.54191
      41 -> 46        -0.42974

 Excited State   7:      Singlet-A      5.9844 eV  207.18 nm  f=0.0000  <S**2>=0.000
      40 -> 44         0.51034
      41 -> 45         0.48658

 Excited State   8:      Singlet-A      5.9919 eV  206.92 nm  f=0.0019  <S**2>=0.000
      40 -> 45         0.49735
      41 -> 44         0.48164

 Excited State   9:      Singlet-A      6.0322 eV  205.54 nm  f=0.0159  <S**2>=0.000
      39 -> 43         0.51969
      39 -> 45         0.10636
      40 -> 45         0.15663
      42 -> 44        -0.15156
      42 -> 46         0.39482

 Excited State  10:      Singlet-A      6.0899 eV  203.59 nm  f=0.0000  <S**2>=0.000
      39 -> 46         0.53172
      40 -> 44        -0.17765
      41 -> 45         0.21017
      42 -> 43         0.35539

 The electronic state is 1-A.
 Alpha  occ. eigenvalues --  -10.18784 -10.18782 -10.18725 -10.18724 -10.18711
 Alpha  occ. eigenvalues --  -10.18710 -10.18670 -10.18667 -10.18644 -10.18642
 Alpha  occ. eigenvalues --  -10.18526 -10.18521  -0.84329  -0.83982  -0.73496
 Alpha  occ. eigenvalues --   -0.73354  -0.73311  -0.73200  -0.59342  -0.59310
 Alpha  occ. eigenvalues --   -0.59302  -0.59246  -0.51860  -0.51726  -0.45292
 Alpha  occ. eigenvalues --   -0.45282  -0.44463  -0.44437  -0.41916  -0.41831
 Alpha  occ. eigenvalues --   -0.41807  -0.41739  -0.37661  -0.35201  -0.34245
 Alpha  occ. eigenvalues --   -0.34238  -0.34234  -0.34224  -0.26207  -0.25190
 Alpha  occ. eigenvalues --   -0.24995  -0.24166
 Alpha virt. eigenvalues --   -0.00879  -0.00548  -0.00382  -0.00101   0.05028
 Alpha virt. eigenvalues --    0.07066   0.08680   0.09295   0.11033   0.11460
 Alpha virt. eigenvalues --    0.13097   0.13361   0.14413   0.14741   0.15070

 Mulliken charges:
               1
     1  C    0.037054
     2  H   -0.021043
     3  C    0.026989
     4  H   -0.018318
     5  C    0.030798
     6  H   -0.021299
     7  C    0.007659
     8  H   -0.020586
     9  C    0.013238
    10  H   -0.019948
    11  C    0.006356
    12  H   -0.020889
    13  C    0.007659
    14  H   -0.020589
    15  C    0.013244
    16  H   -0.019951
    17  C    0.006350
    18  H   -0.020893
    19  C    0.037059
    20  H   -0.021051
    21  C    0.027001
    22  H   -0.018321
    23  C    0.030785
    24  H   -0.021306
 Sum of Mulliken charges =  -0.00000

 Dipole moment (field-independent basis, Debye):
    X=              0.0003    Y=              0.0000    Z=              0.0002  Tot=              0.0003
 Quadrupole moment (field-independent basis, Debye-Ang):
   XX=            -74.9726   YY=            -64.8571   ZZ=            -69.3552
   XY=              0.0023   XZ=             -6.3680   YZ=              0.0004

 Normal termination of Gaussian 16 at Thu Jun 16 11:43:10 2022.
