                         Program Version 5.0.0 -  RELEASE  -
|  1> !B3LYP/G def2-SVP TightSCF NoRI pal8
|  2>
|  3> %TDDFT
|  4>  nroots 10
|  5>  TDA true
|  6> end
|  7>
|  8> *xyzfile 0 1 opt.xyz
|  9>
| 10>
| 11>
| 12>
| 13>                          ****END OF INPUT****

CARTESIAN COORDINATES (ANGSTROEM)
---------------------------------
  C      0.206559    1.124019   -1.697833
  H      0.856837    1.997572   -1.618668
  C      0.753214   -0.159371   -1.631637
  H      1.828161   -0.288450   -1.494000
  C     -0.079891   -1.277566   -1.716091
  H      0.347307   -2.280626   -1.652456
  C     -1.459602   -1.113160   -1.865689
  H     -2.110811   -1.988149   -1.926845
  C     -2.006920    0.171787   -1.930405
  H     -3.085827    0.301336   -2.043220
  C     -1.173091    1.290589   -1.847494
  H     -1.600632    2.294859   -1.892973
  C      1.459529    1.113177    1.866168
  H      2.110681    1.988182    1.927707
  C      2.006839   -0.171760    1.931154
  H      3.085688   -0.301291    2.044559
  C      1.173082   -1.290581    1.847770
  H      1.600618   -2.294843    1.893472
  C     -0.206488   -1.124035    1.697358
  H     -0.856716   -1.997590    1.617805
  C     -0.753134    0.159343    1.630895
  H     -1.828002    0.288398    1.492636
  C      0.079897    1.277556    1.715823
  H     -0.347296    2.280604    1.651965

 Total Charge           Charge          ....    0
 Multiplicity           Mult            ....    1
 Number of Electrons    NEL             ....   84
 Basis Dimension        Dim             ....  228

ORBITAL ENERGIES
----------------

  NO   OCC          E(Eh)            E(eV)
   0   2.0000     -10.187850      -277.2255
   1   2.0000     -10.187830      -277.2249
   2   2.0000     -10.187261      -277.2095
   3   2.0000     -10.187244      -277.2090
   4   2.0000     -10.187119      -277.2056
   5   2.0000     -10.187105      -277.2052
   6   2.0000     -10.186696      -277.1941
   7   2.0000     -10.186668      -277.1933
   8   2.0000     -10.186437      -277.1871
   9   2.0000     -10.186425      -277.1867
  10   2.0000     -10.185262      -277.1551
  11   2.0000     -10.185216      -277.1538
  12   2.0000      -0.843291       -22.9471
  13   2.0000      -0.839822       -22.8527
  14   2.0000      -0.734965       -19.9994
  15   2.0000      -0.733542       -19.9607
  16   2.0000      -0.733110       -19.9489
  17   2.0000      -0.732002       -19.9188
  18   2.0000      -0.593417       -16.1477
  19   2.0000      -0.593103       -16.1392
  20   2.0000      -0.593025       -16.1370
  21   2.0000      -0.592458       -16.1216
  22   2.0000      -0.518604       -14.1119
  23   2.0000      -0.517261       -14.0754
  24   2.0000      -0.452917       -12.3245
  25   2.0000      -0.452825       -12.3220
  26   2.0000      -0.444634       -12.0991
  27   2.0000      -0.444371       -12.0920
  28   2.0000      -0.419163       -11.4060
  29   2.0000      -0.418310       -11.3828
  30   2.0000      -0.418071       -11.3763
  31   2.0000      -0.417390       -11.3578
  32   2.0000      -0.376618       -10.2483
  33   2.0000      -0.352021        -9.5790
  34   2.0000      -0.342449        -9.3185
  35   2.0000      -0.342386        -9.3168
  36   2.0000      -0.342338        -9.3155
  37   2.0000      -0.342240        -9.3128
  38   2.0000      -0.262075        -7.1314
  39   2.0000      -0.251898        -6.8545
  40   2.0000      -0.249949        -6.8015
  41   2.0000      -0.241667        -6.5761
  42   0.0000      -0.008781        -0.2389
  43   0.0000      -0.005478        -0.1491
  44   0.0000      -0.003829        -0.1042
  45   0.0000      -0.001004        -0.0273
  46   0.0000       0.050263         1.3677

MULLIKEN ATOMIC CHARGES
-----------------------
   0 C :    0.036813
   1 H :   -0.021036
   2 C :    0.027377
   3 H :   -0.018380
   4 C :    0.030668
   5 H :   -0.021280
   6 C :    0.007681
   7 H :   -0.020601
   8 C :    0.013187
   9 H :   -0.019949
  10 C :    0.006414
  11 H :   -0.020883
  12 C :    0.007681
  13 H :   -0.020605
  14 C :    0.013197
  15 H :   -0.019952
  16 C :    0.006406
  17 H :   -0.020887
  18 C :    0.036816
  19 H :   -0.021044
  20 C :    0.027395
  21 H :   -0.018384
  22 C :    0.030652
  23 H :   -0.021287
Sum of atomic charges:   -0.0000000

LOEWDIN ATOMIC CHARGES
----------------------
   0 C :   -0.019885
   1 H :    0.024511
   2 C :   -0.016997
   3 H :    0.025777
   4 C :   -0.021406
   5 H :    0.024324
   6 C :   -0.030176
   7 H :    0.024267
   8 C :   -0.029750
   9 H :    0.024490
  10 C :   -0.029353
  11 H :    0.024215
  12 C :   -0.030181
  13 H :    0.024266
  14 C :   -0.029751
  15 H :    0.024490
  16 C :   -0.029360
  17 H :    0.024214
  18 C :   -0.019889
  19 H :    0.024507
  20 C :   -0.016991
  21 H :    0.025772
  22 C :   -0.021413
  23 H :    0.024321

  Mayer bond orders larger than 0.100000
B(  0-C ,  1-H ) :   0.9820 B(  0-C ,  2-C ) :   1.3981 B(  0-C , 10-C ) :   1.3882
B(  2-C ,  3-H ) :   0.9819 B(  2-C ,  4-C ) :   1.3931 B(  4-C ,  5-H ) :   0.9832
B(  4-C ,  6-C ) :   1.3898 B(  6-C ,  7-H ) :   0.9845 B(  6-C ,  8-C ) :   1.3883
B(  8-C ,  9-H ) :   0.9843 B(  8-C , 10-C ) :   1.3900 B( 10-C , 11-H ) :   0.9847
B( 12-C , 13-H ) :   0.9845 B( 12-C , 14-C ) :   1.3883 B( 12-C , 22-C ) :   1.3898
B( 14-C , 15-H ) :   0.9843 B( 14-C , 16-C ) :   1.3900 B( 16-C , 17-H ) :   0.9847
B( 16-C , 18-C ) :   1.3882 B( 18-C , 19-H ) :   0.9820 B( 18-C , 20-C ) :   1.3981
B( 20-C , 21-H ) :   0.9819 B( 20-C , 22-C ) :   1.3931 B( 22-C , 23-H ) :   0.9832

-----------------------------------------------------------------------------
         ABSORPTION SPECTRUM VIA TRANSITION ELECTRIC DIPOLE MOMENTS
-----------------------------------------------------------------------------
State   Energy    Wavelength  fosc         T2        TX        TY        TZ
        (cm-1)      (nm)                 (au**2)    (au)      (au)      (au)
-----------------------------------------------------------------------------
   1   43380.9    230.5   0.000000000   0.00000  -0.00001  -0.00002   0.00001
   2   44068.1    226.9   0.000389164   0.00291   0.02130   0.02516   0.04267
   3   47794.2    209.2   0.000000381   0.00000   0.00132  -0.00030   0.00089
   4   48076.6    208.0   0.048621983   0.33295  -0.33021   0.08481  -0.46553
   5   48085.5    208.0   0.000963211   0.00659   0.04760  -0.01228   0.06464
   6   48249.2    207.3   0.008191435   0.05589  -0.05892   0.00205   0.22894
   7   48266.8    207.2   0.000001728   0.00001   0.00316   0.00131   0.00034
   8   48326.2    206.9   0.001764137   0.01202  -0.06534  -0.04079  -0.07800
   9   48652.5    205.5   0.015997286   0.10825  -0.14237  -0.11427  -0.27372
  10   49119.1    203.6   0.000000135   0.00000  -0.00043  -0.00040  -0.00075

FINAL SINGLE POINT ENERGY      -463.968027663918

DIPOLE MOMENT
-------------
                                X             Y             Z
Electronic contribution:     -0.00000      -0.00000      -0.00011
Nuclear contribution   :      0.00001       0.00000      -0.00003
                        -----------------------------------------
Total Dipole Moment    :      0.00001       0.00000      -0.00014
                        -----------------------------------------
Magnitude (a.u.)       :      0.00014
Magnitude (Debye)      :      0.00036

Rotational constants in cm-1:     0.053934     0.022933     0.021647
Rotational constants in MHz :  1616.887126   687.513065   648.953335

                             ****ORCA TERMINATED NORMALLY****
TOTAL RUN TIME: 0 days 0 hours 0 minutes 57 seconds 606 msec
