 Gaussian 16, Revision A.03,
 Gaussian 16:  ES64L-G16RevA.03 25-Dec-2016

 ---------------------------
 #p CIS=(Nstates=10)/def2SVP
 ---------------------------

 -----------------
 Benzene_dimer CIS
 -----------------
 Symbolic Z-matrix:
 Charge =  0 Multiplicity = 1

                         Standard orientation:
 ---------------------------------------------------------------------
 Center     Atomic      Atomic             Coordinates (Angstroms)
 Number     Number       Type             X           Y           Z
 ---------------------------------------------------------------------
      1          6           0        1.386037    1.132955    0.991987
      2          1           0        1.004021    2.018230    1.504408
      3          6           0        1.052246   -0.140219    1.458798
      4          1           0        0.404742   -0.249661    2.330508
      5          6           0        1.526882   -1.273484    0.793977
      6          1           0        1.255653   -2.268598    1.152948
      7          6           0        2.334364   -1.134366   -0.338113
      8          1           0        2.701129   -2.021150   -0.860145
      9          6           0        2.667200    0.140348   -0.806255
     10          1           0        3.295010    0.250109   -1.693588
     11          6           0        2.193559    1.274239   -0.140058
     12          1           0        2.449136    2.270500   -0.508246
     13          6           0       -2.334744    1.134380    0.337816
     14          1           0       -2.701815    2.021178    0.859610
     15          6           0       -2.667812   -0.140325    0.805819
     16          1           0       -3.296106   -0.250071    1.692812
     17          6           0       -2.193793   -1.274232    0.139917
     18          1           0       -2.449562   -2.270486    0.507991
     19          6           0       -1.385657   -1.132968   -0.991691
     20          1           0       -1.003326   -2.018243   -1.503877
     21          6           0       -1.051636    0.140195   -1.458363
     22          1           0       -0.403630    0.249617   -2.329699
     23          6           0       -1.526649    1.273475   -0.793839
     24          1           0       -1.255229    2.268578   -1.152696
 ---------------------------------------------------------------------

 SCF Done:  E(RHF) =  -461.064333940     A.U. after   13 cycles

 Excitation energies and oscillator strengths:

 Excited State   1:      Singlet-A      6.1580 eV  201.34 nm  f=0.0000  <S**2>=0.000
      39 -> 46        -0.28789
      40 -> 44         0.34166
      41 -> 45        -0.34323
      42 -> 43         0.40954
 This state for optimization and/or second-order correction.
 Total Energy, E(CIS/TDA) =  -460.838030854
 Copying the excited state density for this state as the 1-particle RhoCI density.

 Excited State   2:      Singlet-A      6.1837 eV  200.50 nm  f=0.0001  <S**2>=0.000
      39 -> 43        -0.31935
      40 -> 45        -0.33659
      41 -> 44         0.34976
      42 -> 46         0.37582

 Excited State   3:      Singlet-A      6.3312 eV  195.83 nm  f=0.0012  <S**2>=0.000
      39 -> 45         0.29507
      40 -> 43        -0.34685
      41 -> 46        -0.31870
      42 -> 44         0.39218

 Excited State   4:      Singlet-A      6.3468 eV  195.35 nm  f=0.0000  <S**2>=0.000
      39 -> 44         0.29396
      40 -> 46         0.32142
      41 -> 43         0.37048
      42 -> 45         0.37620

 Excited State   5:      Singlet-A      7.8516 eV  157.91 nm  f=0.0000  <S**2>=0.000
      39 -> 46        -0.18831
      40 -> 44        -0.35114
      41 -> 45         0.33564
      42 -> 43         0.44179

 Excited State   6:      Singlet-A      7.9850 eV  155.27 nm  f=0.0000  <S**2>=0.000
      39 -> 44         0.21543
      40 -> 46        -0.24804
      41 -> 43        -0.40227
      42 -> 45         0.44226

 Excited State   7:      Singlet-A      8.4311 eV  147.06 nm  f=1.8103  <S**2>=0.000
      39 -> 45         0.14255
      40 -> 43         0.41576
      41 -> 46         0.23518
      42 -> 44         0.45239

 Excited State   8:      Singlet-A      8.4360 eV  146.97 nm  f=0.0000  <S**2>=0.000
      38 -> 49         0.10602
      39 -> 48         0.31296
      42 -> 47         0.59690

 Excited State   9:      Singlet-A      8.5852 eV  144.42 nm  f=0.0000  <S**2>=0.000
      40 -> 48        -0.38818
      41 -> 47         0.54540

 Excited State  10:      Singlet-A      8.6044 eV  144.09 nm  f=0.0603  <S**2>=0.000
      40 -> 47         0.52852
      41 -> 48        -0.40490

 The electronic state is 1-A.
 Alpha  occ. eigenvalues --  -11.23604 -11.23602 -11.23500 -11.23497 -11.23469
 Alpha  occ. eigenvalues --  -11.23463 -11.23386 -11.23385 -11.23363 -11.23362
 Alpha  occ. eigenvalues --  -11.23200 -11.23198  -1.13463  -1.13049  -0.99853
 Alpha  occ. eigenvalues --   -0.99688  -0.99639  -0.99505  -0.81013  -0.80981
 Alpha  occ. eigenvalues --   -0.80963  -0.80902  -0.70186  -0.70030  -0.62997
 Alpha  occ. eigenvalues --   -0.62984  -0.61650  -0.61615  -0.58307  -0.58222
 Alpha  occ. eigenvalues --   -0.58180  -0.58106  -0.51289  -0.49026  -0.49024
 Alpha  occ. eigenvalues --   -0.49021  -0.49005  -0.47961  -0.34622  -0.33212
 Alpha  occ. eigenvalues --   -0.32929  -0.31782
 Alpha virt. eigenvalues --    0.13148   0.13691   0.13808   0.14242   0.17146
 Alpha virt. eigenvalues --    0.19689   0.20557   0.21397   0.23420   0.23876
 Alpha virt. eigenvalues --    0.25267   0.25597   0.26598   0.27271   0.28700

 Mulliken charges:
               1
     1  C   -0.023985
     2  H    0.038900
     3  C   -0.029735
     4  H    0.042064
     5  C   -0.029938
     6  H    0.038644
     7  C   -0.053987
     8  H    0.039630
     9  C   -0.046264
    10  H    0.040439
    11  C   -0.055077
    12  H    0.039314
    13  C   -0.053986
    14  H    0.039627
    15  C   -0.046251
    16  H    0.040436
    17  C   -0.055078
    18  H    0.039311
    19  C   -0.023984
    20  H    0.038891
    21  C   -0.029726
    22  H    0.042063
    23  C   -0.029945
    24  H    0.038637
 Sum of Mulliken charges =  -0.00000

 Dipole moment (field-independent basis, Debye):
    X=              0.0003    Y=              0.0000    Z=              0.0002  Tot=              0.0003
 Quadrupole moment (field-independent basis, Debye-Ang):
   XX=            -77.3967   YY=            -64.6617   ZZ=            -70.2923
   XY=              0.0013   XZ=             -7.9888   YZ=             -0.0004

 Normal termination of Gaussian 16 at Thu Jun 16 11:31:48 2022.
