                         Program Version 5.0.0 -  RELEASE  -
|  1> !RHF def2-SVP TightSCF pal8
|  2>
|  3> %cis
|  4>  nroots 10
|  5> end
|  6>
|  7> *xyzfile 0 1 opt.xyz
|  8>
|  9>
| 10>
| 11>
| 12>                          ****END OF INPUT****

CARTESIAN COORDINATES (ANGSTROEM)
---------------------------------
  C      0.206559    1.124019   -1.697833
  H      0.856837    1.997572   -1.618668
  C      0.753214   -0.159371   -1.631637
  H      1.828161   -0.288450   -1.494000
  C     -0.079891   -1.277566   -1.716091
  H      0.347307   -2.280626   -1.652456
  C     -1.459602   -1.113160   -1.865689
  H     -2.110811   -1.988149   -1.926845
  C     -2.006920    0.171787   -1.930405
  H     -3.085827    0.301336   -2.043220
  C     -1.173091    1.290589   -1.847494
  H     -1.600632    2.294859   -1.892973
  C      1.459529    1.113177    1.866168
  H      2.110681    1.988182    1.927707
  C      2.006839   -0.171760    1.931154
  H      3.085688   -0.301291    2.044559
  C      1.173082   -1.290581    1.847770
  H      1.600618   -2.294843    1.893472
  C     -0.206488   -1.124035    1.697358
  H     -0.856716   -1.997590    1.617805
  C     -0.753134    0.159343    1.630895
  H     -1.828002    0.288398    1.492636
  C      0.079897    1.277556    1.715823
  H     -0.347296    2.280604    1.651965

 Total Charge           Charge          ....    0
 Multiplicity           Mult            ....    1
 Number of Electrons    NEL             ....   84
 Basis Dimension        Dim             ....  228

ORBITAL ENERGIES
----------------

  NO   OCC          E(Eh)            E(eV)
   0   2.0000     -11.236037      -305.7481
   1   2.0000     -11.236021      -305.7477
   2   2.0000     -11.234997      -305.7198
   3   2.0000     -11.234968      -305.7190
   4   2.0000     -11.234691      -305.7115
   5   2.0000     -11.234634      -305.7099
   6   2.0000     -11.233857      -305.6888
   7   2.0000     -11.233847      -305.6885
   8   2.0000     -11.233631      -305.6826
   9   2.0000     -11.233620      -305.6823
  10   2.0000     -11.232006      -305.6384
  11   2.0000     -11.231986      -305.6379
  12   2.0000      -1.134636       -30.8750
  13   2.0000      -1.130492       -30.7622
  14   2.0000      -0.998535       -27.1715
  15   2.0000      -0.996877       -27.1264
  16   2.0000      -0.996395       -27.1133
  17   2.0000      -0.995051       -27.0767
  18   2.0000      -0.810131       -22.0448
  19   2.0000      -0.809812       -22.0361
  20   2.0000      -0.809630       -22.0312
  21   2.0000      -0.809020       -22.0146
  22   2.0000      -0.701863       -19.0987
  23   2.0000      -0.700300       -19.0561
  24   2.0000      -0.629970       -17.1424
  25   2.0000      -0.629840       -17.1388
  26   2.0000      -0.616500       -16.7758
  27   2.0000      -0.616155       -16.7664
  28   2.0000      -0.583073       -15.8662
  29   2.0000      -0.582216       -15.8429
  30   2.0000      -0.581805       -15.8317
  31   2.0000      -0.581059       -15.8114
  32   2.0000      -0.512892       -13.9565
  33   2.0000      -0.490264       -13.3408
  34   2.0000      -0.490237       -13.3400
  35   2.0000      -0.490214       -13.3394
  36   2.0000      -0.490052       -13.3350
  37   2.0000      -0.479614       -13.0510
  38   2.0000      -0.346220        -9.4211
  39   2.0000      -0.332119        -9.0374
  40   2.0000      -0.329295        -8.9606
  41   2.0000      -0.317826        -8.6485
  42   0.0000       0.131478         3.5777
  43   0.0000       0.136911         3.7255
  44   0.0000       0.138081         3.7574
  45   0.0000       0.142419         3.8754
  46   0.0000       0.171458         4.6656

MULLIKEN ATOMIC CHARGES
-----------------------
   0 C :   -0.023986
   1 H :    0.038900
   2 C :   -0.029734
   3 H :    0.042065
   4 C :   -0.029939
   5 H :    0.038644
   6 C :   -0.053986
   7 H :    0.039629
   8 C :   -0.046263
   9 H :    0.040438
  10 C :   -0.055077
  11 H :    0.039314
  12 C :   -0.053985
  13 H :    0.039627
  14 C :   -0.046250
  15 H :    0.040435
  16 C :   -0.055078
  17 H :    0.039310
  18 C :   -0.023985
  19 H :    0.038891
  20 C :   -0.029724
  21 H :    0.042063
  22 C :   -0.029946
  23 H :    0.038637
Sum of atomic charges:   -0.0000000

LOEWDIN ATOMIC CHARGES
----------------------
   0 C :   -0.018832
   1 H :    0.025181
   2 C :   -0.016961
   3 H :    0.026642
   4 C :   -0.020789
   5 H :    0.024984
   6 C :   -0.032741
   7 H :    0.024965
   8 C :   -0.030858
   9 H :    0.025323
  10 C :   -0.031780
  11 H :    0.024879
  12 C :   -0.032744
  13 H :    0.024965
  14 C :   -0.030861
  15 H :    0.025323
  16 C :   -0.031785
  17 H :    0.024878
  18 C :   -0.018836
  19 H :    0.025177
  20 C :   -0.016954
  21 H :    0.026637
  22 C :   -0.020796
  23 H :    0.024981

  Mayer bond orders larger than 0.100000
B(  0-C ,  1-H ) :   0.9990 B(  0-C ,  2-C ) :   1.4217 B(  0-C , 10-C ) :   1.4116
B(  2-C ,  3-H ) :   0.9973 B(  2-C ,  4-C ) :   1.4169 B(  4-C ,  5-H ) :   0.9995
B(  4-C ,  6-C ) :   1.4145 B(  6-C ,  7-H ) :   0.9995 B(  6-C ,  8-C ) :   1.4138
B(  8-C ,  9-H ) :   0.9995 B(  8-C , 10-C ) :   1.4166 B( 10-C , 11-H ) :   0.9995
B( 12-C , 13-H ) :   0.9995 B( 12-C , 14-C ) :   1.4138 B( 12-C , 22-C ) :   1.4145
B( 14-C , 15-H ) :   0.9995 B( 14-C , 16-C ) :   1.4166 B( 16-C , 17-H ) :   0.9995
B( 16-C , 18-C ) :   1.4116 B( 18-C , 19-H ) :   0.9990 B( 18-C , 20-C ) :   1.4217
B( 20-C , 21-H ) :   0.9973 B( 20-C , 22-C ) :   1.4169 B( 22-C , 23-H ) :   0.9995

-----------------------------------------------------------------------------
         ABSORPTION SPECTRUM VIA TRANSITION ELECTRIC DIPOLE MOMENTS
-----------------------------------------------------------------------------
State   Energy    Wavelength  fosc         T2        TX        TY        TZ
        (cm-1)      (nm)                 (au**2)    (au)      (au)      (au)
-----------------------------------------------------------------------------
   1   49667.8    201.3   0.000000000   0.00000   0.00001   0.00001   0.00000
   2   49874.9    200.5   0.000048003   0.00032  -0.00368  -0.01468  -0.00937
   3   51064.9    195.8   0.001198293   0.00773   0.06299  -0.02234   0.05708
   4   51190.6    195.3   0.000000001   0.00000   0.00006  -0.00004   0.00002
   5   63327.4    157.9   0.000000007   0.00000   0.00004  -0.00010   0.00015
   6   64403.0    155.3   0.000000229   0.00000   0.00023   0.00002  -0.00106
   7   68001.7    147.1   1.811484262   8.76982  -2.90332   0.15013  -0.56394
   8   68040.7    147.0   0.000006833   0.00003  -0.00564  -0.00023  -0.00110
   9   69244.2    144.4   0.000000007   0.00000  -0.00010  -0.00015   0.00000
  10   69399.7    144.1   0.055702911   0.26424   0.45167  -0.23840   0.05829

FINAL SINGLE POINT ENERGY      -460.838030889692

DIPOLE MOMENT
-------------
                                X             Y             Z
Electronic contribution:      0.00001      -0.00000      -0.00009
Nuclear contribution   :      0.00001       0.00000      -0.00003
                        -----------------------------------------
Total Dipole Moment    :      0.00002       0.00000      -0.00013
                        -----------------------------------------
Magnitude (a.u.)       :      0.00013
Magnitude (Debye)      :      0.00032

Rotational constants in cm-1:     0.053934     0.022933     0.021647
Rotational constants in MHz :  1616.887126   687.513065   648.953335

                             ****ORCA TERMINATED NORMALLY****
TOTAL RUN TIME: 0 days 0 hours 1 minutes 27 seconds 361 msec
